version 2
run RedPractica-0-20210127-20:28:52-690823
attr configname RedPractica
attr datetime 20210127-20:28:52
attr experiment RedPractica
attr inifile omnetpp.ini
attr iterationvars ""
attr iterationvarsf ""
attr measurement ""
attr network redPractica
attr processid 690823
attr repetition 0
attr replication #0
attr resultdir results
attr runnumber 0
attr seedset 0

vector 0 redPractica.nodo4 HopCount ETV
vector 1 redPractica.nodo4 e2eDelay ETV
vector 2 redPractica.nodo3 HopCount ETV
vector 3 redPractica.nodo3 e2eDelay ETV
0	8	0.164275878159	1
0	9	0.164275878159	1
0	13	0.202942544826	2
0	33	1.346240543196	1
0	38	1.46861644025	1
0	46	1.500283106917	1
0	49	1.51461644025	1
0	51	1.526949773584	2
0	52	1.528949773583	2
0	62	1.710005482727	1
0	63	1.710005482727	1
0	75	1.981949773583	3
0	77	2.057949773583	2
0	86	2.374324354675	1
0	97	2.415378121018	1
0	110	2.516991021342	2
0	114	2.558324354675	1
0	117	2.585657688008	1
0	131	2.654657688009	2
0	139	2.701657688009	1
0	143	2.728991021342	2
0	145	2.75499102134	3
0	151	2.869991021342	2
0	160	3.356102672345	1
0	161	3.356102672345	1
0	165	3.497769339012	2
0	174	4.263704025847	1
0	189	4.656037359181	2
0	201	4.854704025848	2
0	205	4.975037359181	2
0	209	5.215704025847	3
0	218	5.538631587216	1
0	219	5.538631587216	1
0	225	5.904298253882	2
0	253	6.857485319085	1
0	257	7.095485319085	1
0	266	7.274210518694	1
0	269	7.333485319085	2
0	273	7.454818652419	2
0	275	7.583485319086	1
0	277	7.712151985753	2
0	306	8.510228463202	2
0	322	9.200477122297	1
0	328	9.252143788964	1
0	333	9.350477122298	2
0	355	9.721563951468	2
0	357	9.754143788963	2
0	358	9.757563951468	1
0	363	9.85581045563	1
0	365	9.907477122297	2
0	369	9.943477122297	1
0	373	10.045143788964	2
0	375	10.081143788964	3
0	386	10.230146290205	1
0	395	10.455146290205	2
0	415	11.1218853772	1
0	419	11.14400484663	1
0	427	11.213476299245	1
0	441	11.387218710534	2
0	457	11.522552043867	2
0	461	11.8758853772	3
0	476	12.060217399548	1
0	488	12.107902858383	1
0	507	12.228550732881	2
0	513	12.396884066214	2
0	517	12.456884066214	1
0	521	12.516884066214	2
0	523	12.556884066214	3
0	532	12.781369470181	1
0	542	13.038036136847	1
0	560	13.17338807053	1
0	564	13.276788684391	1
0	573	13.30578868439	2
0	589	13.66178868439	3
0	600	13.963556237648	1
0	606	14.117222904315	1
0	611	14.414556237649	3
0	631	16.782496930035	1
0	645	17.174496930035	3
0	662	17.320647690844	1
0	669	17.493163596702	1
0	671	17.545163596702	1
0	675	17.639314357511	2
0	683	17.649163596702	2
0	685	17.681163596702	1
0	696	17.918379188739	2
0	708	18.091214089088	1
0	715	18.318496930036	2
0	725	18.370496930036	2
0	737	18.466496930036	3
0	743	18.561163596703	1
0	747	18.741163596703	1
0	749	18.82583026337	1
0	751	18.910496930037	3
0	769	20.031920447697	2
0	770	20.031920447697	2
0	780	21.618818495783	1
0	785	22.040818495783	2
0	789	22.462818495783	3
0	810	23.802729415744	1
0	831	24.205062749077	2
0	833	24.210062749077	2
0	838	24.245062749077	1
0	843	24.315062749077	2
0	845	24.350062749077	3
0	859	25.34682598685	1
0	869	25.459210701449	1
0	870	25.459210701449	1
0	881	26.107492653515	3
0	883	26.149825986849	2
0	892	26.560943801371	1
0	914	27.005610468037	2
0	919	27.037341267404	1
0	931	27.210718042864	2
0	943	27.288943801371	1
0	945	27.311943801371	3
0	948	27.325622724347	1
0	951	27.380610468038	1
0	957	27.457956057681	2
0	966	28.518906600825	1
0	981	28.746233641855	1
0	984	28.756239934158	1
0	988	28.834573267491	2
0	997	29.05957326749	2
0	1014	29.819557336374	1
0	1031	30.526189483863	1
0	1034	30.561242027806	1
0	1043	30.64257536114	1
0	1047	30.984242027806	2
0	1066	31.574067295841	1
0	1071	31.774733962508	2
0	1073	31.788067295841	3
0	1098	33.260385969523	1
0	1099	33.260385969523	1
0	1113	33.320385969523	1
0	1117	33.392385969523	1
0	1119	33.61205263619	2
0	1127	33.68405263619	1
0	1129	33.71405263619	2
0	1138	33.737269631936	1
0	1153	33.85805263619	2
0	1166	33.925366976599	1
0	1175	33.94905263619	1
0	1190	33.97405263619	1
0	1203	33.991183612057	1
0	1214	34.013850278723	1
0	1221	34.025183612056	2
0	1229	34.040850278723	1
0	1243	34.066719302856	1
0	1247	34.082385969523	1
0	1249	34.088183612057	1
0	1259	34.154385969523	2
0	1265	34.17805263619	2
0	1266	34.180516945387	3
0	1282	34.561129381737	1
0	1287	34.664129381737	2
0	1293	34.870129381737	3
0	1315	36.541769769227	2
0	1319	36.561057685624	2
0	1331	36.763103102561	1
0	1334	36.785500616354	1
0	1340	36.873769769228	2
0	1352	37.009248062	1
0	1359	37.127500616354	3
0	1361	37.138581395334	2
0	1374	37.336387309895	1
0	1385	37.376167223689	1
0	1397	37.494720643229	2
0	1408	37.58372064323	3
0	1420	37.689434433271	1
0	1425	37.759767766604	1
0	1427	37.830101099937	2
0	1437	38.300282493089	1
0	1442	38.431949159756	1
0	1445	38.563615826423	3
0	1454	40.428764565838	1
0	1455	40.428764565838	1
0	1467	40.934941340223	1
0	1473	41.110941340223	2
0	1475	41.261097899172	2
0	1493	41.613097899172	2
0	1502	41.651412726769	1
0	1517	41.784097899172	1
0	1519	41.820764565839	1
0	1527	41.988572935174	3
0	1565	42.751646109939	1
0	1568	42.832286807715	1
0	1573	42.842286807715	1
0	1585	43.071620141048	2
0	1587	43.083953474381	2
0	1606	43.612698352074	1
0	1607	43.612698352074	1
0	1611	43.625031685407	3
0	1620	43.68587409166	1
0	1641	43.79187409166	2
0	1649	43.83787409166	2
0	1665	44.07136501874	2
0	1675	44.15536501874	2
0	1678	44.20836501874	2
0	1682	44.27436501874	2
0	1694	47.056467747331	1
0	1710	47.686897719866	1
0	1711	47.686897719866	1
0	1727	48.179168681001	2
0	1744	48.307466700569	1
0	1754	48.323764415177	1
0	1758	48.330536756024	1
0	1761	48.342764415177	1
0	1765	48.361764415177	2
0	1767	48.377431081844	1
0	1771	48.408764415178	2
0	1792	49.334945468041	1
0	1801	49.91494546804	2
0	1803	50.108278801373	2
0	1824	51.142486888418	1
0	1825	51.142486888418	1
0	1830	51.209486888418	1
0	1831	51.209486888418	1
0	1836	51.229820221751	1
0	1837	51.229820221751	1
0	1843	51.333486888418	3
0	1861	52.10438810428	1
0	1875	52.344820221752	2
0	1877	52.365153555085	2
0	1879	52.39038810428	2
0	1882	52.508153555085	1
0	1885	52.62438810428	1
0	1886	52.625153555085	2
0	1889	52.74138810428	2
0	1898	52.903111023413	1
0	1899	52.903111023413	1
0	1925	53.48777326351	2
0	1926	53.48777326351	2
0	1944	54.975675608233	1
0	1953	55.105342274899	2
0	1954	55.105342274899	2
0	1964	55.298884444563	1
0	1984	55.901381499411	1
0	2004	56.014457752379	1
0	2009	56.028381499411	2
0	2010	56.028791085712	1
0	2015	56.081048166078	1
0	2017	56.095381499411	1
0	2021	56.148048166078	2
0	2029	56.374008941566	3
0	2042	56.945019311081	1
0	2047	57.123019311081	2
0	2048	57.128019311081	2
0	2058	57.916386826336	1
0	2059	57.916386826336	1
0	2078	58.091978792221	1
0	2089	58.569386826337	2
0	2097	58.62772015967	1
0	2100	58.74437566657	1
0	2111	58.944386826336	1
0	2114	58.955210948216	1
0	2119	59.030210948216	2
0	2124	59.105210948216	3
0	2127	59.261053493002	2
0	2143	59.823530174264	1
0	2153	60.011583024692	1
0	2158	60.022249691359	1
0	2164	60.052583024692	1
0	2173	60.163916358024	3
0	2175	60.266249691359	2
0	2179	60.287583024693	2
0	2188	60.578805347373	1
0	2197	60.838472014039	2
0	2203	61.098138680705	3
0	2213	61.743277688457	1
0	2219	62.220611021791	3
0	2228	63.395137602562	1
0	2233	63.747470935895	2
0	2234	63.747470935895	1
0	2249	65.129789260619	1
0	2260	65.272396032677	1
0	2275	65.410943561105	2
0	2279	65.685062699344	2
0	2290	65.862229794375	1
0	2295	65.985563127708	2
0	2296	65.985563127708	1
0	2308	66.159378014798	1
0	2309	66.159378014798	1
0	2330	66.32985295562	1
0	2348	66.388213408807	1
0	2369	66.552562768906	2
0	2373	66.572044681465	3
0	2375	66.610378014798	1
0	2377	66.622378014798	1
0	2379	66.660711348131	2
0	2381	66.672711348131	3
0	2396	67.976280716242	1
0	2408	68.100280716242	1
0	2418	68.398947382909	2
0	2422	68.460947382909	2
0	2467	69.575894312339	2
0	2475	69.617894312339	2
0	2481	69.718560979005	2
0	2497	70.239695276268	1
0	2501	70.380492347929	3
0	2505	70.708492347929	2
0	2519	70.868167123428	1
0	2535	71.139121408349	2
0	2537	71.144121408349	1
0	2541	71.159121408349	2
0	2545	71.184121408349	1
0	2555	71.229788075016	1
0	2557	71.254788075016	1
0	2558	71.255121408349	1
0	2563	71.280121408349	1
0	2575	71.471157282118	2
0	2586	71.540609159899	1
0	2591	71.565942493232	3
0	2593	71.606942493232	2
0	2595	71.637275826565	2
0	2616	71.749364459648	1
0	2619	71.758874938425	2
0	2625	71.783208271758	1
0	2627	71.807541605091	2
0	2641	71.961979404876	2
0	2654	72.034842437451	1
0	2660	72.071175770784	2
0	2663	72.102509104117	2
0	2672	72.39304289866	1
0	2682	72.552376231994	2
0	2693	72.668549545965	1
0	2702	72.786376231995	2
0	2705	72.859042898662	2
0	2714	72.977805969395	1
0	2715	72.977805969395	1
0	2721	73.122472636061	3
0	2741	73.356427635342	1
0	2751	73.489760968676	2
0	2754	73.519464692397	1
0	2757	73.563760968676	1
0	2759	73.593464692397	2
0	2774	74.469315811727	1
0	2784	74.533315811727	1
0	2793	74.560315811727	2
0	2796	74.594689417755	1
0	2799	74.637689417755	2
0	2805	74.852315811727	2
0	2807	74.884315811727	2
0	2815	75.028315811727	2
0	2826	75.395775499122	1
0	2848	75.874585567023	1
0	2849	75.877775499121	2
0	2857	76.040108832454	3
0	2876	79.061154762722	1
0	2877	79.061154762722	1
0	2883	79.175821429389	1
0	2884	79.175821429389	2
0	2905	79.857798909053	2
0	2917	80.01146557572	3
0	2925	80.120132242387	1
0	2937	80.424845901441	3
0	2939	80.434845901441	1
0	2953	80.890235420623	1
0	2956	81.007936057185	1
0	2966	81.050602723851	1
0	2979	81.193936057185	2
0	2999	81.623602723851	2
0	3001	81.644936057184	3
0	3003	81.725269390517	2
0	3024	82.216633971885	1
0	3034	82.231633971885	1
0	3039	82.26451554425	1
0	3041	82.272300638552	1
0	3043	82.312967305219	2
0	3047	82.459848877583	2
0	3049	82.474848877583	2
0	3064	82.726219642573	1
0	3065	82.726219642573	1
0	3073	83.036219642574	3
0	3082	83.224634654463	1
0	3083	83.224634654463	1
0	3096	83.447258576474	1
0	3097	83.450634654463	3
0	3141	83.800634654463	1
0	3159	83.946634654464	2
0	3160	83.949694917952	2
0	3163	84.006301321131	1
0	3165	84.065967987798	2
0	3181	84.277714552069	1
0	3189	84.304714552069	1
0	3191	84.331714552069	2
0	3194	84.377047885402	1
0	3215	86.057965783252	2
0	3229	86.217486879364	1
0	3235	86.245486879364	2
0	3239	86.262471188616	1
0	3245	86.318471188616	1
0	3253	86.449471188616	3
0	3257	86.691137855283	2
0	3259	86.720137855283	2
0	3263	86.748137855283	2
0	3278	87.359539520963	1
0	3283	87.577539520963	2
0	3287	87.795539520963	2
0	3320	88.335072042076	1
0	3323	88.525405375409	1
0	3324	88.525405375409	2
0	3327	88.561072042076	1
0	3329	88.596738708743	3
0	3339	91.090055181779	1
0	3343	91.641721848446	2
0	3352	91.922812265983	1
0	3387	92.178145599316	2
0	3391	92.253261726026	1
0	3393	92.272261726026	1
0	3394	92.275812265983	1
0	3397	92.294812265983	1
0	3399	92.308812265983	1
0	3403	92.336812265983	2
0	3405	92.369928392693	2
0	3423	92.495518289853	2
0	3426	92.501261726027	1
0	3431	92.76159505936	2
0	3433	92.78059505936	3
0	3435	92.846261726027	2
0	3449	93.688192739256	2
0	3465	93.832699776947	1
0	3471	93.843209314932	1
0	3493	93.933033110279	2
0	3495	93.954875981599	2
0	3496	93.957366443612	1
0	3499	93.979209314932	1
0	3500	93.983699776945	3
0	3503	94.003542648265	2
0	3524	96.227083747741	1
0	3525	96.227083747741	1
0	3537	96.311750414407	1
0	3538	96.311750414407	1
0	3543	96.35408374774	2
0	3545	96.378750414407	1
0	3547	96.445750414407	2
0	3567	96.772616345749	1
0	3579	96.801283012416	1
0	3585	96.819949679083	2
0	3595	96.998616345749	1
0	3607	97.236843362811	1
0	3609	97.313176696144	2
0	3611	97.434616345749	3
0	3613	97.463283012416	1
0	3617	97.597283012416	3
0	3631	97.671949679084	1
0	3641	97.897949679084	3
0	3645	97.916616345751	2
0	3649	98.069283012417	1
0	3670	98.310458110179	1
0	3673	98.329458110179	1
0	3675	98.337283012417	2
0	3679	98.471283012417	2
0	3683	98.60061634575	1
0	3687	98.63861634575	1
0	3689	98.65761634575	3
0	3700	98.847526375455	1
0	3701	98.847526375455	1
0	3705	98.969193042122	2
0	3719	99.558272110012	1
0	3723	99.659439318195	1
0	3728	99.681439318195	1
0	3735	99.737439318195	3
0	3737	99.859105984862	2
0	3752	100.398693313422	1
0	3755	100.538026646755	2
0	3780	101.010832636183	1
0	3781	101.010832636183	1
0	3786	101.029165969516	1
0	3791	101.065832636182	1
0	3793	101.235832636182	2
0	3802	101.518836316743	1
0	3812	101.767502983409	2
0	3822	102.235022087436	1
0	3837	102.333820296294	1
0	3840	102.395688754103	1
0	3843	102.44235542077	1
0	3845	102.489022087437	2
0	3881	103.820279941433	2
0	3883	103.8549466081	2
0	3916	104.164935767665	1
0	3921	104.180914421513	1
0	3927	104.229935767665	2
0	3941	104.438935767665	3
0	3943	104.480935767665	3
0	3957	104.879774929894	1
0	3962	105.000441596561	2
0	3991	105.732184011682	1
0	3998	105.763517345015	1
0	4014	105.938850678349	1
0	4019	105.970184011682	1
0	4025	105.996517345015	1
0	4029	106.023517345015	2
0	4031	106.230184011682	3
0	4045	106.952911004695	1
0	4057	107.046367856166	2
0	4065	107.175577671362	2
0	4069	107.238367856166	2
0	4082	108.543407983245	1
0	4083	108.543407983245	1
0	4087	108.849074649912	2
0	4097	109.808528596109	1
0	4102	110.101861929442	1
0	4107	110.678528596108	3
0	4125	111.001266683259	1
0	4131	111.274266683259	2
0	4135	111.302266683259	2
0	4173	111.7991873618	1
0	4174	111.7991873618	1
0	4191	112.029875383819	2
0	4195	112.092875383819	2
0	4197	112.118520695134	2
0	4215	112.528788201917	2
0	4231	112.954244871711	1
0	4242	113.093597213737	1
0	4249	113.113457768889	2
0	4253	113.170791102222	2
0	4255	113.260457768888	1
0	4259	113.275124435555	1
0	4261	113.311124435555	1
0	4263	113.482457768888	2
0	4265	113.653791102221	3
0	4275	113.958226630051	1
0	4279	114.124893296718	2
0	4290	114.902136897189	1
0	4295	115.107803563856	2
0	4299	115.323470230523	2
0	4313	115.726496796815	2
0	4314	115.726496796815	2
0	4325	116.880843209753	1
0	4336	117.113928481649	1
0	4353	117.214595148316	1
0	4367	117.465827093375	1
0	4385	117.963509876419	3
0	4391	118.054843209753	3
0	4427	119.406491700674	2
0	4446	119.934370813313	1
0	4455	119.982704146646	1
0	4459	119.993704146646	1
0	4469	120.097370813313	1
0	4472	120.100167811695	1
0	4503	120.493704146646	2
0	4513	120.590370813312	2
0	4515	120.601370813312	2
0	4517	120.674370813312	1
0	4519	120.714704146645	1
0	4521	120.755037479978	2
0	4523	120.768037479978	2
0	4525	120.871704146645	2
0	4527	120.975370813312	3
0	4529	121.015704146645	2
0	4535	121.054704146645	2
0	4562	121.469733885592	1
0	4563	121.469733885592	1
0	4567	121.488733885592	1
0	4569	121.507733885592	2
0	4570	121.508733885592	1
0	4575	121.585733885592	1
0	4577	121.624733885592	2
0	4589	122.574304998654	1
0	4593	122.795638331987	1
0	4594	122.795638331987	2
0	4604	123.36522746456	1
0	4605	123.36522746456	1
0	4613	123.93122746456	3
0	4628	124.645710966791	1
0	4632	124.674118049018	1
0	4655	124.880118049018	3
0	4665	124.943118049018	1
0	4667	124.949784715685	2
0	4673	125.006118049018	2
0	4677	125.025118049018	2
0	4679	125.075784715685	2
0	4681	125.094784715685	2
0	4702	125.458382368416	1
0	4714	125.555382368416	2
0	4717	125.604382368416	2
0	4719	125.647382368416	2
0	4721	125.653382368416	3
0	4730	125.958134743422	1
0	4755	126.472999013597	2
0	4757	126.57533234693	2
0	4773	127.15700345631	1
0	4803	127.662674350347	1
0	4809	127.717670122978	3
0	4819	127.821670122978	2
0	4826	127.893847711431	2
0	4837	128.101847711431	3
0	4839	128.176514378098	3
0	4841	128.231181044765	2
0	4856	129.114010675852	1
0	4869	129.133227622649	1
0	4875	129.171344009185	1
0	4889	129.668677342519	2
0	4893	129.686677342519	2
0	4897	129.744010675852	2
0	4899	129.778344009185	2
0	4955	130.596010675854	3
0	4957	130.620543064008	2
0	4959	130.638543064008	1
0	4963	130.674543064008	2
0	4972	130.738876397341	1
0	4975	130.803209730674	2
0	5022	131.160356667107	1
0	5035	131.297023333773	2
0	5037	131.310356667106	2
0	5053	131.552010675854	1
0	5059	131.722010675855	1
0	5067	131.961010675855	2
0	5078	132.06432037013	1
0	5081	132.074344009189	2
0	5089	132.090677342522	1
0	5095	132.123344009188	2
0	5099	132.139677342521	3
0	5101	132.15432037013	2
0	5103	132.204010675854	1
0	5107	132.272344009187	1
0	5111	132.299010675853	1
0	5113	132.312344009186	2
0	5115	132.328344009186	1
0	5119	132.420344009186	2
0	5121	132.436344009186	2
0	5129	132.452344009186	2
0	5131	132.514344009186	2
0	5145	132.638344009186	2
0	5147	132.668344009186	1
0	5153	132.804344009186	2
0	5157	132.940344009186	2
0	5168	133.06294553913	1
0	5171	133.137010675852	3
0	5173	133.185612205797	2
0	5189	133.382344009186	1
0	5195	133.496682523904	2
0	5206	133.76628540855	1
0	5221	133.96628540855	2
0	5224	134.008604263231	1
0	5241	134.16628540855	3
0	5245	134.236618741883	1
0	5247	134.244478509876	2
0	5259	134.306952075216	3
0	5263	134.354285408549	1
0	5265	134.380315998591	2
0	5267	134.401618741882	2
0	5269	134.444618741882	1
0	5271	134.487618741882	2
0	5280	135.670265932088	1
0	5299	135.894357260687	1
0	5305	135.917357260687	1
0	5309	135.935265932088	2
0	5315	136.014357260687	2
0	5329	136.128326612814	2
0	5331	136.200265932088	2
0	5333	136.223265932088	3
0	5335	136.272599265421	2
0	5344	136.512578349949	1
0	5349	136.607578349949	1
0	5359	136.702578349949	2
0	5364	136.761911683282	1
0	5375	136.87350178306	2
0	5378	136.901134966642	1
0	5385	136.984168449726	1
0	5387	137.006801633308	2
0	5396	137.485566278852	1
0	5397	137.485566278852	1
0	5408	137.544816823407	1
0	5414	137.58615015674	2
0	5419	137.622483490073	2
0	5439	137.86597125212	1
0	5450	137.93997125212	1
0	5454	137.947898902458	1
0	5457	137.955304585453	2
0	5470	138.035314870062	1
0	5481	138.08297125212	2
0	5484	138.094648203396	2
0	5486	138.098304585453	2
0	5489	138.12997125212	2
0	5498	138.179308076667	1
0	5503	138.218974743334	2
0	5528	138.526763764398	1
0	5533	138.544430431065	3
0	5540	138.683430431064	1
0	5545	138.718763764398	1
0	5567	139.23607613284	1
0	5572	139.25607613284	1
0	5583	139.480742799506	1
0	5585	139.500742799506	2
0	5586	139.500742799506	1
0	5603	139.801790274075	1
0	5608	139.877173734842	1
0	5621	140.037840401509	2
0	5623	140.198507068176	2
0	5650	141.54173995174	1
0	5657	141.566781295192	2
0	5658	141.567406618406	2
0	5665	141.582739951739	3
0	5681	141.806781295192	1
0	5693	141.857004321198	2
0	5712	141.924004321198	1
0	5715	141.940781295192	1
0	5716	141.942004321198	1
0	5719	141.958781295192	1
0	5720	141.961670987865	1
0	5723	141.976781295192	2
0	5733	142.0600043212	2
0	5735	142.079670987867	3
0	5749	142.708845369683	2
0	5753	142.846178703016	3
0	5767	143.105554804084	2
0	5773	143.220554804084	1
0	5794	143.564593325461	1
0	5819	143.750229005588	1
0	5821	143.804454330481	2
0	5825	143.850454330481	1
0	5829	143.896454330481	2
0	5842	143.973995963576	1
0	5843	143.973995963576	1
0	5853	144.037995963576	2
0	5856	144.047100895222	1
0	5865	144.108100895222	2
0	5869	144.146100895222	2
0	5879	144.576514451453	1
0	5884	144.686847784786	2
0	5895	145.027657494156	1
0	5908	145.206791420148	1
0	5909	145.206791420148	1
0	5917	145.323124753482	2
0	5926	145.589192721425	1
0	5935	145.766526054759	2
0	5937	145.855192721426	2
0	5952	147.58605768298	1
0	5953	147.58605768298	1
0	5965	147.765724349646	2
0	5997	148.523865648892	3
0	6003	148.680198982225	1
0	6007	148.836532315558	2
0	6026	150.119934694206	1
0	6031	150.138934694206	2
0	6046	150.71232066216	1
0	6050	150.763945934081	1
0	6069	151.468612600747	2
0	6077	151.587612600747	1
0	6080	151.631780355183	1
0	6085	151.706612600747	2
0	6091	151.872612600747	1
0	6102	152.008284844103	1
0	6107	152.038612600747	2
0	6115	152.176612600747	1
0	6137	152.443284844103	3
0	6139	152.511915610719	2
0	6143	152.54195151077	1
0	6152	152.768919260366	1
0	6167	152.9482525937	2
0	6178	153.021145724888	1
0	6181	153.037919260367	3
0	6183	153.0972525937	3
0	6199	154.334108912783	1
0	6209	154.827546400728	1
0	6215	154.884213067394	2
0	6225	155.186879734061	2
0	6235	155.252865143754	1
0	6239	155.357546400728	1
0	6253	155.540343817876	1
0	6263	155.678343817876	2
0	6269	155.962879734062	3
0	6273	156.059546400728	1
0	6281	156.230213067395	2
0	6283	156.299213067395	1
0	6295	156.444213067394	3
0	6303	156.845086439882	2
0	6322	157.160605952105	1
0	6327	157.173605952105	2
0	6331	157.341605952105	2
0	6333	157.359605952105	2
0	6335	157.372605952105	2
0	6349	157.819025964732	1
0	6364	157.958814000607	1
0	6365	157.958814000607	1
0	6371	158.032147333941	2
0	6381	158.305903107401	2
0	6393	158.390903107401	3
0	6395	158.487903107401	2
0	6405	158.662907162728	1
0	6423	158.805573829395	2
0	6425	158.847240496062	1
0	6434	158.963404946433	1
0	6440	159.0260716131	2
0	6452	159.610360442954	1
0	6453	159.610360442954	1
0	6457	159.747360442954	2
0	6466	159.900069214776	1
0	6471	159.985735881443	2
0	6479	160.328402548111	2
0	6499	161.245264825088	2
0	6500	161.245264825088	2
0	6507	161.339598158421	1
0	6522	162.314257357799	1
0	6523	162.314257357799	1
0	6527	162.529257357799	2
0	6552	164.644649175535	1
0	6553	164.644649175535	1
0	6557	164.658315842202	1
0	6559	164.671982508869	2
0	6569	164.765315842201	1
0	6571	164.778982508868	2
0	6590	165.22768140896	1
0	6609	165.684456013834	2
0	6611	166.045649175534	3
0	6613	166.105982508867	3
0	6615	166.223982508867	2
0	6625	166.406984759823	1
0	6629	166.588318093156	2
0	6638	167.572398486917	1
0	6644	167.825065153584	2
0	6654	167.983026400994	1
0	6660	168.111693067661	1
0	6663	168.230359734328	3
0	6672	169.307158316428	1
0	6673	169.307158316428	1
0	6699	169.416191861778	1
0	6701	169.417317145961	1
0	6705	169.430317145961	1
0	6715	169.514049273129	2
0	6717	169.527049273129	2
0	6731	169.695491649761	3
0	6737	169.788203787659	2
0	6739	169.800824983095	2
0	6759	171.344836086498	1
0	6760	171.344836086498	1
0	6771	171.677595003251	2
0	6780	171.951352049135	1
0	6787	172.073352049135	1
0	6805	172.737928336586	3
0	6809	172.786478113372	2
0	6819	172.892595003253	1
0	6830	172.945411739467	1
0	6841	173.014595003253	3
0	6843	173.03626166992	1
0	6849	173.057928336587	2
0	6851	173.079595003254	3
0	6853	173.130078406133	2
0	6863	173.562868638362	1
0	6867	173.685201971695	2
0	6881	174.086790052144	2
0	6882	174.086790052144	2
0	6909	174.378473220605	1
0	6910	174.383286519655	1
0	6921	174.552619852989	2
0	6923	174.637286519656	3
0	6933	174.701286519656	3
0	6951	174.967357614836	2
0	6961	175.061024281503	3
0	6965	175.121024281503	1
0	6967	175.181024281503	3
0	6988	176.916064192932	1
0	6989	176.916064192932	1
0	6994	176.964397526265	1
0	6995	176.964397526265	1
0	7000	176.976397526265	1
0	7001	176.976397526265	1
0	7007	176.990397526265	3
0	7022	177.061287628407	1
0	7026	177.081287628407	1
0	7031	177.188620961741	3
0	7059	177.588873575979	1
0	7065	177.691873575979	2
0	7076	177.81397880335	1
0	7085	177.937312136684	2
0	7089	177.998978803351	3
0	7091	178.089397526265	2
0	7093	178.137730859598	2
0	7095	178.206397526265	1
0	7099	178.246397526265	1
0	7101	178.266397526265	2
0	7103	178.369397526265	2
0	7107	178.416064192931	2
0	7137	179.607578027591	1
0	7149	179.817578027591	1
0	7157	179.887578027591	2
0	7159	179.922578027591	2
0	7165	180.037578027591	1
0	7175	180.167578027591	3
0	7186	180.203852368001	1
0	7193	180.293578027591	1
0	7197	180.356578027591	2
0	7199	180.381578027591	1
0	7205	180.431578027591	2
0	7213	180.551839472718	3
0	7215	180.614839472718	3
0	7224	180.74355457951	1
0	7225	180.74355457951	1
0	7229	180.854221246177	2
0	7249	181.85618073477	2
0	7250	181.85618073477	2
0	7257	181.949847401437	1
0	7267	182.305234985271	3
0	7276	182.612065151983	1
0	7277	182.612065151983	1
0	7281	182.759065151983	2
0	7295	182.978586618931	1
0	7301	183.005919952265	1
0	7321	183.176819119562	2
0	7331	183.231485786229	1
0	7333	183.245152452896	3
0	7335	183.276289770461	1
0	7339	183.330956437128	2
0	7357	184.338971273617	2
0	7359	184.501637940284	3
0	7385	185.062728448224	2
0	7389	185.137728448224	1
0	7395	185.380061781557	2
0	7409	185.530061781557	3
0	7419	185.821395114891	1
0	7423	185.967061781558	2
0	7436	186.393978639297	1
0	7441	186.569645305964	2
0	7473	186.862274845592	1
0	7477	186.913274845592	2
0	7507	188.80551912875	1
0	7508	188.80551912875	1
0	7513	188.942852462083	1
0	7515	189.126852462083	2
0	7517	189.264185795416	1
0	7519	189.401519128749	2
0	7555	189.935893473606	2
0	7559	189.952893473607	2
0	7561	189.983560140273	1
0	7571	190.085893473606	2
0	7573	190.133560140273	1
0	7575	190.327893473606	3
0	7593	190.658807142509	2
0	7596	190.692514144792	1
0	7601	190.714847478125	1
0	7605	190.867514144792	2
0	7613	191.020180811459	2
0	7615	191.042514144792	2
0	7618	191.053245260762	1
0	7621	191.133514144792	1
0	7636	191.436596126627	1
0	7637	191.436596126627	1
0	7643	191.625262793293	2
0	7665	192.125781988725	1
0	7693	192.276115322058	1
0	7698	192.302448655391	2
0	7707	192.357448655391	2
0	7709	192.368448655391	2
0	7713	192.428448655391	1
0	7716	192.458448655391	2
0	7725	192.608781988724	3
0	7748	193.803959799167	1
0	7749	193.803959799167	1
0	7754	193.838959799167	1
0	7761	193.885626465834	1
0	7765	193.908959799167	1
0	7767	193.943959799167	2
0	7769	193.990626465834	1
0	7771	194.037293132501	3
0	7775	194.4682931325	2
0	7785	195.246450267455	1
0	7795	195.360748953057	1
0	7796	195.360748953057	1
0	7809	195.592840165079	1
0	7810	195.592840165079	1
0	7824	195.750948853072	1
0	7833	195.829282186405	2
0	7845	195.941450267453	2
0	7847	195.953022496924	1
0	7851	195.99511693412	1
0	7853	196.048783600787	2
0	7861	196.421116934121	3
0	7872	196.853291154461	1
0	7873	196.853291154461	1
0	7877	197.034624487794	2
0	7887	197.635443470272	1
0	7897	197.818443470272	1
0	7900	197.859235193429	1
0	7911	198.001443470272	2
0	7919	198.060362701011	2
0	7923	198.083443470272	1
0	7949	198.411443470272	3
0	7953	198.533443470272	2
0	7987	199.370128325721	1
0	7991	199.532794992388	2
0	7993	199.695461659055	3
0	8002	200.601050350491	1
0	8003	200.601050350491	1
0	8023	201.376738755318	1
0	8033	201.500990092589	2
0	8041	202.171050350489	3
0	8047	202.530717017157	2
0	8053	202.600717017157	2
0	8057	203.016050350491	3
0	8066	203.805797496592	1
0	8067	203.805797496592	1
0	8089	205.167797496593	2
0	8107	205.513797496593	1
0	8109	205.551854134995	2
0	8113	205.566130829926	1
0	8115	205.618464163259	2
0	8117	205.623854134995	1
0	8119	205.690464163259	1
0	8121	205.762464163259	2
0	8130	205.886153366035	1
0	8159	206.426153366035	2
0	8163	206.642153366035	2
0	8165	206.721486699368	2
0	8174	207.268732744648	1
0	8180	207.490732744648	2
0	8206	209.786317553876	1
0	8207	209.786317553876	1
0	8211	209.857984220543	1
0	8212	209.857984220543	1
0	8221	209.92965088721	2
0	8229	210.026300946053	1
0	8241	210.335967612721	2
0	8258	210.79398260046	1
0	8272	210.94242793804	1
0	8280	210.96042793804	1
0	8285	210.975761271373	1
0	8297	211.34342793804	2
0	8299	211.36142793804	2
0	8308	212.33970424309	1
0	8320	212.534495212316	1
0	8324	212.627370909757	1
0	8330	212.723037576424	1
0	8333	212.811495212317	3
0	8374	214.060955654365	1
0	8375	214.060955654365	1
0	8379	214.090288987698	1
0	8380	214.090288987698	1
0	8384	214.119622321031	2
0	8393	214.143622321032	2
0	8396	214.178675170372	1
0	8407	214.388675170372	3
0	8424	214.463571534487	1
0	8430	214.47390486782	2
0	8435	214.494571534486	2
0	8449	214.689416198778	3
0	8452	214.699416198778	1
0	8462	216.621071794588	1
0	8473	217.425071794588	1
0	8488	217.981054232996	1
0	8493	218.253720899663	2
0	8497	218.53638756633	2
0	8525	220.366128809233	1
0	8534	220.458921736755	1
0	8538	220.847851510999	1
0	8543	220.866518177666	1
0	8547	220.894184844333	1
0	8571	221.115544261128	1
0	8572	221.115544261128	1
0	8577	221.143544261128	1
0	8595	221.171544261128	2
0	8596	221.173901371153	1
0	8599	221.199544261128	2
0	8601	221.217544261128	2
0	8607	221.250544261128	1
0	8615	221.329210927796	2
0	8648	221.646515494267	1
0	8653	221.681848827601	1
0	8660	221.717182160935	2
0	8689	221.953184844334	3
0	8691	221.970851511001	3
0	8702	222.57162385186	1
0	8705	222.731851511	2
0	8709	222.759518177667	2
0	8711	222.857518177667	1
0	8713	222.887518177667	2
0	8715	222.898518177667	2
0	8719	223.086184844334	1
0	8737	224.56383428423	1
0	8747	224.77983428423	1
0	8750	224.96783428423	1
0	8754	225.02183428423	1
0	8759	225.11983428423	3
0	8775	225.36683428423	2
0	8781	225.56083428423	1
0	8783	225.575259958221	1
0	8787	225.607926624888	1
0	8791	225.640593291555	2
0	8793	225.658834284231	1
0	8802	225.84239648666	1
0	8817	226.046834284231	2
0	8826	226.155167617564	2
0	8829	226.224557560944	1
0	8831	226.295890894277	2
0	8833	226.36722422761	2
0	8852	226.990581134246	1
0	8853	226.990581134246	1
0	8858	227.011914467579	2
0	8875	227.176581134246	2
0	8893	228.986366880763	1
0	8907	229.381366880763	2
0	8909	229.434366880763	2
0	8934	229.873022346755	1
0	8960	230.042022346755	2
0	8962	230.047022346755	2
0	8966	230.093355680088	1
0	8970	230.107022346755	1
0	8973	230.114936114421	2
0	8977	230.167022346755	2
0	8981	230.227022346755	2
0	8985	230.256355680089	1
0	8987	230.271022346756	2
0	9001	230.786654374699	1
0	9011	230.90948993208	1
0	9016	230.928156598747	1
0	9028	230.967823265414	1
0	9031	230.983141987797	1
0	9037	231.005808654464	2
0	9043	231.057475321131	3
0	9049	231.125475321132	3
0	9051	231.148489932081	2
0	9053	231.167156598748	2
0	9062	231.669915887135	1
0	9067	231.801915887135	2
0	9078	232.491984793864	1
0	9083	232.669318127197	2
0	9100	233.234374134853	1
0	9106	233.261707468186	1
0	9111	233.311374134852	2
0	9119	233.757374134853	2
0	9121	233.784707468186	2
0	9145	234.096911690872	1
0	9149	234.139449232992	1
0	9155	234.178115899659	1
0	9157	234.189449232992	1
0	9165	234.379449232992	2
0	9169	234.456782566326	2
0	9179	234.591782566326	2
0	9213	234.882411732893	2
0	9233	235.079449232992	3
0	9237	235.102115899658	3
0	9247	235.268449232991	1
0	9249	235.283782566324	1
0	9275	235.450115899657	2
0	9281	235.487115899656	2
0	9283	235.499449232989	2
0	9293	235.514782566322	2
0	9307	235.605064153941	2
0	9311	235.640064153941	2
0	9313	235.685730820608	1
0	9315	235.705730820608	1
0	9316	235.709449232988	1
0	9323	235.765730820608	2
0	9325	235.806782566321	2
0	9327	235.841782566321	1
0	9329	235.887449232988	1
0	9331	235.933115899655	2
0	9339	235.953115899655	1
0	9348	236.028407349994	1
0	9353	236.049782566322	1
0	9359	236.079115899655	2
0	9369	236.334640771207	3
0	9373	236.393307437873	3
0	9382	237.48062018051	1
0	9383	237.48062018051	1
0	9411	237.622004188612	1
0	9415	237.753953513843	2
0	9429	237.82462018051	1
0	9436	237.844791606507	1
0	9442	237.861458273174	2
0	9447	237.895286847177	2
0	9451	237.950620180511	2